<?xml version="1.0"?>
<VTKFile type="PolyData" version="0.1" byte_order="LittleEndian"> 
<PolyData>
<Piece NumberOfPoints=" 30 "  NumberOfVerts=" 30 " NumberOfLines=" 0" NumberOfStrips="0" NumberOfPolys="0">
<Points>
<DataArray type="Float64" NumberOfComponents="3" format="ascii"> 
0.0146542  -1.99995  0.0  -1.97404  -0.321191  0.0  1.58307  1.22225  0.0  -0.906468  1.78278  0.0  1.15372  1.63369  0.0  1.96931  0.34904  0.0  0.867301  1.80216  0.0  -1.92522  0.541798  0.0  0.882055  -1.79499  0.0  0.0619621  1.99904  0.0  1.54784  -1.26656  0.0  1.94834  -0.451647  0.0  -1.29561  -1.52361  0.0  1.99824  -0.0839639  0.0  -1.9946  -0.146869  0.0  1.2334  -1.57439  0.0  0.309521  -1.9759  0.0  0.485831  1.94009  0.0  -1.81529  0.839479  0.0  1.02897  -1.715  0.0  0.801065  1.83257  0.0  0.72716  1.86313  0.0  -1.50122  1.32149  0.0  -1.83485  -0.795821  0.0  -0.72237  1.86499  0.0  0.549623  1.923  0.0  -1.91619  -0.572903  0.0  1.33587  -1.48844  0.0  -1.00073  1.73163  0.0  -1.20662  1.59501  0.0  
</DataArray> 
</Points> 
<PointData Scalars="intputValue0 "  > 
<DataArray type="Float64" Name="inputValue0"  format="ascii">
-0.244564 -0.280452 0.130004 -0.312412 0.137563 -0.200517 0.300931 0.185978 0.244285 -0.484267 -0.0631768 0.107579 0.214865 -0.365179 -0.123521 0.0903937 0.395806 -0.0122322 0.0227998 -0.231061 -0.334765 0.143712 0.0154882 0.362448 0.321654 0.464396 0.0411308 -0.385377 0.166412 -0.307922 
</DataArray>
    </PointData>
    <CellData> </CellData>
    <Verts>
    <DataArray type="Int32" Name="connectivity" format="ascii">
0 1 2 3 4 5 6 7 8 9 10 11 12 13 14 15 16 17 18 19 20 21 22 23 24 25 26 27 28 29 
</DataArray>
<DataArray type="Int32" Name="offsets" format="ascii">
1 2 3 4 5 6 7 8 9 10 11 12 13 14 15 16 17 18 19 20 21 22 23 24 25 26 27 28 29 30 
</DataArray>
    </Verts>
<Lines></Lines>
<Strips></Strips>
<Polys></Polys>
</Piece>
</PolyData>
</VTKFile>
