<?xml version="1.0"?>
<VTKFile type="PolyData" version="0.1" byte_order="LittleEndian"> 
<PolyData>
<Piece NumberOfPoints=" 30 "  NumberOfVerts=" 30 " NumberOfLines=" 0" NumberOfStrips="0" NumberOfPolys="0">
<Points>
<DataArray type="Float64" NumberOfComponents="3" format="ascii"> 
2.56647  1.92666  0.265153  3.48002  6.21014  3.42881  3.85063  2.57775  2.68199  2.739  6.8828  2.27642  2.08523  3.31815  3.0019  3.72178  3.83186  4.06954  2.74487  2.07807  -0.172639  2.89569  2.23767  4.40754  2.13114  2.92023  0.9803  2.5112  1.54752  2.91378  2.10666  5.30867  2.32386  3.11929  1.02945  2.21853  3.49189  6.48256  2.81197  3.99663  4.1842  2.16312  3.76567  2.46809  0.826561  2.07627  5.00838  1.44895  3.01951  6.21313  -0.0245055  3.99099  3.6099  1.90327  2.0008  4.11579  1.96885  2.02362  3.72241  2.58574  2.10604  2.66366  2.14712  3.34732  3.54371  4.776  3.19281  4.08619  -0.942445  3.81038  5.17606  3.30628  3.82046  4.25869  3.69549  2.00712  3.90067  1.65675  3.66466  1.7586  1.98693  2.27834  1.9313  2.18251  2.77751  2.14096  4.25797  3.76777  2.7762  3.48227  
</DataArray> 
</Points> 
<PointData Scalars="intputValue0 "  > 
<DataArray type="Float64" Name="inputValue0"  format="ascii">
-0.442587 -0.514364 0.306548 -0.578282 0.321667 -0.354493 0.648404 0.418497 0.535111 -0.921992 -0.0798126 0.2617 0.476271 -0.683818 -0.200502 0.227328 0.838154 0.0220765 0.0921405 -0.41558 -0.62299 0.333966 0.0775173 0.771437 0.689848 0.975333 0.128803 -0.724213 0.379364 -0.569303 
</DataArray>
    </PointData>
    <CellData> </CellData>
    <Verts>
    <DataArray type="Int32" Name="connectivity" format="ascii">
0 1 2 3 4 5 6 7 8 9 10 11 12 13 14 15 16 17 18 19 20 21 22 23 24 25 26 27 28 29 
</DataArray>
<DataArray type="Int32" Name="offsets" format="ascii">
1 2 3 4 5 6 7 8 9 10 11 12 13 14 15 16 17 18 19 20 21 22 23 24 25 26 27 28 29 30 
</DataArray>
    </Verts>
<Lines></Lines>
<Strips></Strips>
<Polys></Polys>
</Piece>
</PolyData>
</VTKFile>
